#Number of atoms, bonds and angles

32 atoms
64 bonds
192 angles

4 atom types
2 bond types
1 angle types

0.0	         6.377999783 xlo xhi
0.0	         5.523347855 ylo yhi
0.0	        10.369999886 zlo zhi

Masses

1	1
2	1
3	1
4	1


Atoms	

  1 1  1	 0.859000	          0.000000000 	          0.000000000 	          0.000000000
  2 1  3	 -0.859000	          1.594499946 	          0.920559817 	          0.611674443
  3 1  1	 0.859000	          3.188999891 	          0.000000000 	          0.000000000
  4 1  3	 -0.859000	          4.783499837 	          0.920559817 	          0.611674443
  5 1  1	 0.859000	          1.594499946 	          2.761673927 	          0.000000000
  6 1  3	 -0.859000	          0.000000000 	          3.682233744 	          0.611674443
  7 1  1	 0.859000	          4.783499837 	          2.761673927 	          0.000000000
  8 1  3	 -0.859000	          3.188999891 	          3.682233744 	          0.611674443
  9 1  2	 0.859000	          1.594499946 	          0.920559817 	          2.592499971
 10 1  4	 -0.859000	          0.000000000 	          0.000000000 	          3.204174415
 11 1  2	 0.859000	          4.783499837 	          0.920559817 	          2.592499971
 12 1  4	 -0.859000	          3.188999891 	          0.000000000 	          3.204174415
 13 1  2	 0.859000	          0.000000000 	          3.682233744 	          2.592499971
 14 1  4	 -0.859000	          1.594499946 	          2.761673927 	          3.204174415
 15 1  2	 0.859000	          3.188999891 	          3.682233744 	          2.592499971
 16 1  4	 -0.859000	          4.783499837 	          2.761673927 	          3.204174415
 17 1  1	 0.859000	          0.000000000 	          0.000000000 	          5.184999943
 18 1  3	 -0.859000	          1.594499946 	          0.920559817 	          5.796674386
 19 1  1	 0.859000	          3.188999891 	          0.000000000 	          5.184999943
 20 1  3	 -0.859000	          4.783499837 	          0.920559817 	          5.796674386
 21 1  1	 0.859000	          1.594499946 	          2.761673927 	          5.184999943
 22 1  3	 -0.859000	          0.000000000 	          3.682233744 	          5.796674386
 23 1  1	 0.859000	          4.783499837 	          2.761673927 	          5.184999943
 24 1  3	 -0.859000	          3.188999891 	          3.682233744 	          5.796674386
 25 1  2	 0.859000	          1.594499946 	          0.920559817 	          7.777499914
 26 1  4	 -0.859000	          0.000000000 	          0.000000000 	          8.389174357
 27 1  2	 0.859000	          4.783499837 	          0.920559817 	          7.777499914
 28 1  4	 -0.859000	          3.188999891 	          0.000000000 	          8.389174357
 29 1  2	 0.859000	          0.000000000 	          3.682233744 	          7.777499914
 30 1  4	 -0.859000	          1.594499946 	          2.761673927 	          8.389174357
 31 1  2	 0.859000	          3.188999891 	          3.682233744 	          7.777499914
 32 1  4	 -0.859000	          4.783499837 	          2.761673927 	          8.389174357


Bonds

1	1	1	2
2	1	1	4
3	1	1	6
4	2	1	26
5	1	2	3
6	1	2	5
7	2	2	9
8	1	3	4
9	1	3	8
10	2	3	28
11	1	4	7
12	2	4	11
13	1	5	6
14	1	5	8
15	2	5	30
16	1	6	7
17	2	6	13
18	1	7	8
19	2	7	32
20	2	8	15
21	1	9	10
22	1	9	12
23	1	9	14
24	1	10	11
25	1	10	13
26	2	10	17
27	1	11	12
28	1	11	16
29	1	12	15
30	2	12	19
31	1	13	14
32	1	13	16
33	1	14	15
34	2	14	21
35	1	15	16
36	2	16	23
37	1	17	18
38	1	17	20
39	1	17	22
40	1	18	19
41	1	18	21
42	2	18	25
43	1	19	20
44	1	19	24
45	1	20	23
46	2	20	27
47	1	21	22
48	1	21	24
49	1	22	23
50	2	22	29
51	1	23	24
52	2	24	31
53	1	25	26
54	1	25	28
55	1	25	30
56	1	26	27
57	1	26	29
58	1	27	28
59	1	27	32
60	1	28	31
61	1	29	30
62	1	29	32
63	1	30	31
64	1	31	32


Angles

1	1	4	1	2
2	1	6	1	2
3	1	26	1	2
4	1	3	2	1
5	1	5	2	1
6	1	9	2	1
7	1	6	1	4
8	1	26	1	4
9	1	3	4	1
10	1	7	4	1
11	1	11	4	1
12	1	26	1	6
13	1	5	6	1
14	1	7	6	1
15	1	13	6	1
16	1	25	26	1
17	1	27	26	1
18	1	29	26	1
19	1	5	2	3
20	1	9	2	3
21	1	4	3	2
22	1	8	3	2
23	1	28	3	2
24	1	9	2	5
25	1	6	5	2
26	1	8	5	2
27	1	30	5	2
28	1	10	9	2
29	1	12	9	2
30	1	14	9	2
31	1	8	3	4
32	1	28	3	4
33	1	7	4	3
34	1	11	4	3
35	1	28	3	8
36	1	5	8	3
37	1	7	8	3
38	1	15	8	3
39	1	25	28	3
40	1	27	28	3
41	1	31	28	3
42	1	11	4	7
43	1	6	7	4
44	1	8	7	4
45	1	32	7	4
46	1	10	11	4
47	1	12	11	4
48	1	16	11	4
49	1	8	5	6
50	1	30	5	6
51	1	7	6	5
52	1	13	6	5
53	1	30	5	8
54	1	7	8	5
55	1	15	8	5
56	1	25	30	5
57	1	29	30	5
58	1	31	30	5
59	1	13	6	7
60	1	8	7	6
61	1	32	7	6
62	1	10	13	6
63	1	14	13	6
64	1	16	13	6
65	1	32	7	8
66	1	15	8	7
67	1	27	32	7
68	1	29	32	7
69	1	31	32	7
70	1	12	15	8
71	1	14	15	8
72	1	16	15	8
73	1	12	9	10
74	1	14	9	10
75	1	11	10	9
76	1	13	10	9
77	1	17	10	9
78	1	14	9	12
79	1	11	12	9
80	1	15	12	9
81	1	19	12	9
82	1	13	14	9
83	1	15	14	9
84	1	21	14	9
85	1	13	10	11
86	1	17	10	11
87	1	12	11	10
88	1	16	11	10
89	1	17	10	13
90	1	14	13	10
91	1	16	13	10
92	1	18	17	10
93	1	20	17	10
94	1	22	17	10
95	1	16	11	12
96	1	15	12	11
97	1	19	12	11
98	1	13	16	11
99	1	15	16	11
100	1	23	16	11
101	1	19	12	15
102	1	14	15	12
103	1	16	15	12
104	1	18	19	12
105	1	20	19	12
106	1	24	19	12
107	1	16	13	14
108	1	15	14	13
109	1	21	14	13
110	1	15	16	13
111	1	23	16	13
112	1	21	14	15
113	1	16	15	14
114	1	18	21	14
115	1	22	21	14
116	1	24	21	14
117	1	23	16	15
118	1	20	23	16
119	1	22	23	16
120	1	24	23	16
121	1	20	17	18
122	1	22	17	18
123	1	19	18	17
124	1	21	18	17
125	1	25	18	17
126	1	22	17	20
127	1	19	20	17
128	1	23	20	17
129	1	27	20	17
130	1	21	22	17
131	1	23	22	17
132	1	29	22	17
133	1	21	18	19
134	1	25	18	19
135	1	20	19	18
136	1	24	19	18
137	1	25	18	21
138	1	22	21	18
139	1	24	21	18
140	1	26	25	18
141	1	28	25	18
142	1	30	25	18
143	1	24	19	20
144	1	23	20	19
145	1	27	20	19
146	1	21	24	19
147	1	23	24	19
148	1	31	24	19
149	1	27	20	23
150	1	22	23	20
151	1	24	23	20
152	1	26	27	20
153	1	28	27	20
154	1	32	27	20
155	1	24	21	22
156	1	23	22	21
157	1	29	22	21
158	1	23	24	21
159	1	31	24	21
160	1	29	22	23
161	1	24	23	22
162	1	26	29	22
163	1	30	29	22
164	1	32	29	22
165	1	31	24	23
166	1	28	31	24
167	1	30	31	24
168	1	32	31	24
169	1	28	25	26
170	1	30	25	26
171	1	27	26	25
172	1	29	26	25
173	1	30	25	28
174	1	27	28	25
175	1	31	28	25
176	1	29	30	25
177	1	31	30	25
178	1	29	26	27
179	1	28	27	26
180	1	32	27	26
181	1	30	29	26
182	1	32	29	26
183	1	32	27	28
184	1	31	28	27
185	1	29	32	27
186	1	31	32	27
187	1	30	31	28
188	1	32	31	28
189	1	32	29	30
190	1	31	30	29
191	1	31	32	29
192	1	32	31	30


Bond Coeffs

1	1.949000	9.065000	-1.140000	0.0
2	1.949000	9.065000	-1.240000	0.0


Angle Coeffs

1	109.471000	1.375000	0	0


BondBond Coeffs

1	0.090000	1.949000	1.949000


BondAngle Coeffs

1	0.499000	0.499000	1.949000	1.949000
